<?xml version="1.0" encoding="UTF-8"?>

<!-- generated on Sun 01 Jan 2017 08:23:44 PM +03 by SUMO gui Version 0.25.0
<?xml version="1.0" encoding="UTF-8"?>

<configuration xmlns:xsi="http://www.w3.org/2001/XMLSchema-instance" xsi:noNamespaceSchemaLocation="http://sumo.dlr.de/xsd/sumo-gui.exeConfiguration.xsd">

    <input>
        <net-file value="/home/emrah/Desktop/Sumo/net.net.xml"/>
        <route-files value="/home/emrah/Desktop/Sumo/routes.rou.xml"/>
    </input>

    <output>
        <fcd-output value="/home/emrah/Desktop/Sumo/trace.fcd.xml"/>
        <tripinfo-output value="tripinfo.xml"/>
        <save-state.prefix value="/home/emrah/Desktop/Sumo/state"/>
    </output>

    <time>
        <begin value="0"/>
        <end value="1500"/>
    </time>

    <emissions>
        <phemlight-path value="/home/emrah/Desktop/Sumo/./PHEMlight/"/>
    </emissions>

    <traci_server>
        <remote-port value="8873"/>
    </traci_server>

</configuration>
-->

<tripinfos xmlns:xsi="http://www.w3.org/2001/XMLSchema-instance" xsi:noNamespaceSchemaLocation="http://sumo.dlr.de/xsd/tripinfo_file.xsd">
    <tripinfo id="3" depart="1.00" departLane="0/3to1/3_0" departPos="5.10" departSpeed="0.00" departDelay="0.00" arrival="168.00" arrivalLane="3/3to4/3_0" arrivalPos="490.50" arrivalSpeed="13.06" duration="167.00" routeLength="1985.40" waitSteps="8" timeLoss="23.64" rerouteNo="0" devices="tripinfo_3" vType="DEFAULT_VEHTYPE" vaporized=""/>
    <tripinfo id="11" depart="7.00" departLane="0/1to1/1_0" departPos="5.10" departSpeed="0.00" departDelay="0.00" arrival="168.00" arrivalLane="3/1to4/1_0" arrivalPos="490.50" arrivalSpeed="13.04" duration="161.00" routeLength="1985.40" waitSteps="0" timeLoss="17.69" rerouteNo="0" devices="tripinfo_11" vType="DEFAULT_VEHTYPE" vaporized=""/>
    <tripinfo id="12" depart="7.00" departLane="4/3to3/3_0" departPos="5.10" departSpeed="0.00" departDelay="0.00" arrival="170.00" arrivalLane="1/3to0/3_0" arrivalPos="490.50" arrivalSpeed="13.13" duration="163.00" routeLength="1985.40" waitSteps="4" timeLoss="19.71" rerouteNo="0" devices="tripinfo_12" vType="DEFAULT_VEHTYPE" vaporized=""/>
    <tripinfo id="8" depart="3.00" departLane="4/1to3/1_0" departPos="5.10" departSpeed="0.00" departDelay="0.00" arrival="175.00" arrivalLane="1/1to0/1_0" arrivalPos="490.50" arrivalSpeed="13.49" duration="172.00" routeLength="1985.40" waitSteps="8" timeLoss="28.54" rerouteNo="0" devices="tripinfo_8" vType="DEFAULT_VEHTYPE" vaporized=""/>
    <tripinfo id="13" depart="9.00" departLane="4/1to3/1_0" departPos="5.10" departSpeed="0.00" departDelay="0.00" arrival="177.00" arrivalLane="1/1to0/1_0" arrivalPos="490.50" arrivalSpeed="13.40" duration="168.00" routeLength="1985.40" waitSteps="4" timeLoss="24.49" rerouteNo="0" devices="tripinfo_13" vType="DEFAULT_VEHTYPE" vaporized=""/>
    <tripinfo id="6" depart="2.00" departLane="4/2to3/2_0" departPos="5.10" departSpeed="0.00" departDelay="0.00" arrival="181.00" arrivalLane="1/2to0/2_0" arrivalPos="490.50" arrivalSpeed="13.07" duration="179.00" routeLength="1985.40" waitSteps="15" timeLoss="35.39" rerouteNo="0" devices="tripinfo_6" vType="DEFAULT_VEHTYPE" vaporized=""/>
    <tripinfo id="9" depart="4.00" departLane="0/2to1/2_0" departPos="5.10" departSpeed="0.00" departDelay="0.00" arrival="182.00" arrivalLane="3/2to4/2_0" arrivalPos="490.50" arrivalSpeed="13.62" duration="178.00" routeLength="1985.40" waitSteps="14" timeLoss="34.65" rerouteNo="0" devices="tripinfo_9" vType="DEFAULT_VEHTYPE" vaporized=""/>
    <tripinfo id="2" depart="1.00" departLane="2/4to2/3_0" departPos="5.10" departSpeed="0.00" departDelay="0.00" arrival="201.00" arrivalLane="2/1to2/0_0" arrivalPos="490.50" arrivalSpeed="13.42" duration="200.00" routeLength="1985.40" waitSteps="30" timeLoss="56.99" rerouteNo="0" devices="tripinfo_2" vType="DEFAULT_VEHTYPE" vaporized=""/>
    <tripinfo id="4" depart="2.00" departLane="1/0to1/1_0" departPos="5.10" departSpeed="0.00" departDelay="0.00" arrival="202.00" arrivalLane="1/3to1/4_0" arrivalPos="490.50" arrivalSpeed="13.22" duration="200.00" routeLength="1985.40" waitSteps="30" timeLoss="56.98" rerouteNo="0" devices="tripinfo_4" vType="DEFAULT_VEHTYPE" vaporized=""/>
    <tripinfo id="5" depart="2.00" departLane="3/4to3/3_0" departPos="5.10" departSpeed="0.00" departDelay="0.00" arrival="202.00" arrivalLane="3/1to3/0_0" arrivalPos="490.50" arrivalSpeed="13.37" duration="200.00" routeLength="1985.40" waitSteps="30" timeLoss="56.73" rerouteNo="0" devices="tripinfo_5" vType="DEFAULT_VEHTYPE" vaporized=""/>
    <tripinfo id="7" depart="3.00" departLane="2/0to2/1_0" departPos="5.10" departSpeed="0.00" departDelay="0.00" arrival="202.00" arrivalLane="2/3to2/4_0" arrivalPos="490.50" arrivalSpeed="12.81" duration="199.00" routeLength="1985.40" waitSteps="27" timeLoss="55.68" rerouteNo="0" devices="tripinfo_7" vType="DEFAULT_VEHTYPE" vaporized=""/>
    <tripinfo id="10" depart="5.00" departLane="1/4to1/3_0" departPos="5.10" departSpeed="0.00" departDelay="0.00" arrival="202.00" arrivalLane="1/1to1/0_0" arrivalPos="490.50" arrivalSpeed="13.23" duration="197.00" routeLength="1985.40" waitSteps="27" timeLoss="53.64" rerouteNo="0" devices="tripinfo_10" vType="DEFAULT_VEHTYPE" vaporized=""/>
    <tripinfo id="1" depart="1.00" departLane="3/0to3/1_0" departPos="5.10" departSpeed="0.00" departDelay="0.00" arrival="203.00" arrivalLane="3/3to3/4_0" arrivalPos="490.50" arrivalSpeed="13.13" duration="202.00" routeLength="1985.40" waitSteps="31" timeLoss="58.37" rerouteNo="0" devices="tripinfo_1" vType="DEFAULT_VEHTYPE" vaporized=""/>
    <tripinfo id="17" depart="14.00" departLane="1/0to1/1_0" departPos="5.10" departSpeed="0.00" departDelay="0.00" arrival="204.00" arrivalLane="1/3to1/4_0" arrivalPos="490.50" arrivalSpeed="13.73" duration="190.00" routeLength="1985.40" waitSteps="19" timeLoss="46.71" rerouteNo="0" devices="tripinfo_17" vType="DEFAULT_VEHTYPE" vaporized=""/>
    <tripinfo id="22" depart="18.00" departLane="2/4to2/3_0" departPos="5.10" departSpeed="0.00" departDelay="0.00" arrival="204.00" arrivalLane="2/1to2/0_0" arrivalPos="490.50" arrivalSpeed="13.37" duration="186.00" routeLength="1985.40" waitSteps="18" timeLoss="42.52" rerouteNo="0" devices="tripinfo_22" vType="DEFAULT_VEHTYPE" vaporized=""/>
    <tripinfo id="14" depart="10.00" departLane="2/0to2/1_0" departPos="5.10" departSpeed="0.00" departDelay="0.00" arrival="204.00" arrivalLane="2/3to2/4_0" arrivalPos="490.50" arrivalSpeed="13.52" duration="194.00" routeLength="1985.40" waitSteps="21" timeLoss="50.60" rerouteNo="0" devices="tripinfo_14" vType="DEFAULT_VEHTYPE" vaporized=""/>
    <tripinfo id="26" depart="21.00" departLane="1/4to1/3_0" departPos="5.10" departSpeed="0.00" departDelay="0.00" arrival="204.00" arrivalLane="1/1to1/0_0" arrivalPos="490.50" arrivalSpeed="13.33" duration="183.00" routeLength="1985.40" waitSteps="18" timeLoss="39.45" rerouteNo="0" devices="tripinfo_26" vType="DEFAULT_VEHTYPE" vaporized=""/>
    <tripinfo id="20" depart="16.00" departLane="3/4to3/3_0" departPos="5.10" departSpeed="0.00" departDelay="0.00" arrival="205.00" arrivalLane="3/1to3/0_0" arrivalPos="490.50" arrivalSpeed="13.25" duration="189.00" routeLength="1985.40" waitSteps="20" timeLoss="45.36" rerouteNo="0" devices="tripinfo_20" vType="DEFAULT_VEHTYPE" vaporized=""/>
    <tripinfo id="15" depart="11.00" departLane="3/0to3/1_0" departPos="5.10" departSpeed="0.00" departDelay="0.00" arrival="205.00" arrivalLane="3/3to3/4_0" arrivalPos="490.50" arrivalSpeed="13.22" duration="194.00" routeLength="1985.40" waitSteps="19" timeLoss="50.60" rerouteNo="0" devices="tripinfo_15" vType="DEFAULT_VEHTYPE" vaporized=""/>
    <tripinfo id="32" depart="26.00" departLane="1/0to1/1_0" departPos="5.10" departSpeed="0.00" departDelay="0.00" arrival="206.00" arrivalLane="1/3to1/4_0" arrivalPos="490.50" arrivalSpeed="13.63" duration="180.00" routeLength="1985.40" waitSteps="14" timeLoss="36.65" rerouteNo="0" devices="tripinfo_32" vType="DEFAULT_VEHTYPE" vaporized=""/>
    <tripinfo id="40" depart="35.00" departLane="2/4to2/3_0" departPos="5.10" departSpeed="0.00" departDelay="0.00" arrival="206.00" arrivalLane="2/1to2/0_0" arrivalPos="490.50" arrivalSpeed="12.60" duration="171.00" routeLength="1985.40" waitSteps="8" timeLoss="27.35" rerouteNo="0" devices="tripinfo_40" vType="DEFAULT_VEHTYPE" vaporized=""/>
    <tripinfo id="21" depart="17.00" departLane="2/0to2/1_0" departPos="5.10" departSpeed="0.00" departDelay="0.00" arrival="206.00" arrivalLane="2/3to2/4_0" arrivalPos="490.50" arrivalSpeed="13.83" duration="189.00" routeLength="1985.40" waitSteps="17" timeLoss="45.42" rerouteNo="0" devices="tripinfo_21" vType="DEFAULT_VEHTYPE" vaporized=""/>
    <tripinfo id="43" depart="37.00" departLane="1/4to1/3_0" departPos="5.10" departSpeed="0.00" departDelay="0.00" arrival="206.00" arrivalLane="1/1to1/0_0" arrivalPos="490.50" arrivalSpeed="13.74" duration="169.00" routeLength="1985.40" waitSteps="8" timeLoss="25.23" rerouteNo="0" devices="tripinfo_43" vType="DEFAULT_VEHTYPE" vaporized=""/>
    <tripinfo id="35" depart="30.00" departLane="3/4to3/3_0" departPos="5.10" departSpeed="0.00" departDelay="0.00" arrival="207.00" arrivalLane="3/1to3/0_0" arrivalPos="490.50" arrivalSpeed="12.61" duration="177.00" routeLength="1985.40" waitSteps="10" timeLoss="33.18" rerouteNo="0" devices="tripinfo_35" vType="DEFAULT_VEHTYPE" vaporized=""/>
    <tripinfo id="25" depart="21.00" departLane="3/0to3/1_0" departPos="5.10" departSpeed="0.00" departDelay="0.00" arrival="207.00" arrivalLane="3/3to3/4_0" arrivalPos="490.50" arrivalSpeed="12.78" duration="186.00" routeLength="1985.40" waitSteps="15" timeLoss="42.99" rerouteNo="0" devices="tripinfo_25" vType="DEFAULT_VEHTYPE" vaporized=""/>
    <tripinfo id="45" depart="38.00" departLane="1/0to1/1_0" departPos="5.10" departSpeed="0.00" departDelay="0.00" arrival="208.00" arrivalLane="1/3to1/4_0" arrivalPos="490.50" arrivalSpeed="13.76" duration="170.00" routeLength="1985.40" waitSteps="8" timeLoss="26.61" rerouteNo="0" devices="tripinfo_45" vType="DEFAULT_VEHTYPE" vaporized=""/>
    <tripinfo id="29" depart="24.00" departLane="2/0to2/1_0" departPos="5.10" departSpeed="0.00" departDelay="0.00" arrival="208.00" arrivalLane="2/3to2/4_0" arrivalPos="490.50" arrivalSpeed="13.17" duration="184.00" routeLength="1985.40" waitSteps="15" timeLoss="40.20" rerouteNo="0" devices="tripinfo_29" vType="DEFAULT_VEHTYPE" vaporized=""/>
    <tripinfo id="37" depart="31.00" departLane="3/0to3/1_0" departPos="5.10" departSpeed="0.00" departDelay="0.00" arrival="209.00" arrivalLane="3/3to3/4_0" arrivalPos="490.50" arrivalSpeed="13.17" duration="178.00" routeLength="1985.40" waitSteps="9" timeLoss="35.02" rerouteNo="0" devices="tripinfo_37" vType="DEFAULT_VEHTYPE" vaporized=""/>
    <tripinfo id="56" depart="50.00" departLane="1/0to1/1_0" departPos="5.10" departSpeed="0.00" departDelay="0.00" arrival="210.00" arrivalLane="1/3to1/4_0" arrivalPos="490.50" arrivalSpeed="12.82" duration="160.00" routeLength="1985.40" waitSteps="0" timeLoss="16.47" rerouteNo="0" devices="tripinfo_56" vType="DEFAULT_VEHTYPE" vaporized=""/>
    <tripinfo id="36" depart="31.00" departLane="2/0to2/1_0" departPos="5.10" departSpeed="0.00" departDelay="0.00" arrival="210.00" arrivalLane="2/3to2/4_0" arrivalPos="490.50" arrivalSpeed="12.64" duration="179.00" routeLength="1985.40" waitSteps="9" timeLoss="35.20" rerouteNo="0" devices="tripinfo_36" vType="DEFAULT_VEHTYPE" vaporized=""/>
    <tripinfo id="46" depart="38.00" departLane="2/0to2/1_0" departPos="5.10" departSpeed="0.00" departDelay="0.00" arrival="212.00" arrivalLane="2/3to2/4_0" arrivalPos="490.50" arrivalSpeed="13.23" duration="174.00" routeLength="1985.40" waitSteps="7" timeLoss="30.19" rerouteNo="0" devices="tripinfo_46" vType="DEFAULT_VEHTYPE" vaporized=""/>
    <tripinfo id="52" depart="45.00" departLane="2/0to2/1_0" departPos="5.10" departSpeed="0.00" departDelay="0.00" arrival="213.00" arrivalLane="2/3to2/4_0" arrivalPos="490.50" arrivalSpeed="12.68" duration="168.00" routeLength="1985.40" waitSteps="6" timeLoss="24.93" rerouteNo="0" devices="tripinfo_52" vType="DEFAULT_VEHTYPE" vaporized=""/>
    <tripinfo id="16" depart="13.00" departLane="0/3to1/3_0" departPos="5.10" departSpeed="0.00" departDelay="0.00" arrival="225.00" arrivalLane="3/3to4/3_0" arrivalPos="490.50" arrivalSpeed="13.81" duration="212.00" routeLength="1985.40" waitSteps="44" timeLoss="68.72" rerouteNo="0" devices="tripinfo_16" vType="DEFAULT_VEHTYPE" vaporized=""/>
    <tripinfo id="30" depart="24.00" departLane="0/1to1/1_0" departPos="5.10" departSpeed="0.00" departDelay="0.00" arrival="225.00" arrivalLane="3/1to4/1_0" arrivalPos="490.50" arrivalSpeed="12.93" duration="201.00" routeLength="1985.40" waitSteps="32" timeLoss="57.75" rerouteNo="0" devices="tripinfo_30" vType="DEFAULT_VEHTYPE" vaporized=""/>
    <tripinfo id="19" depart="15.00" departLane="4/1to3/1_0" departPos="5.10" departSpeed="0.00" departDelay="0.00" arrival="225.00" arrivalLane="1/1to0/1_0" arrivalPos="490.50" arrivalSpeed="12.86" duration="210.00" routeLength="1985.40" waitSteps="39" timeLoss="66.68" rerouteNo="0" devices="tripinfo_19" vType="DEFAULT_VEHTYPE" vaporized=""/>
    <tripinfo id="31" depart="25.00" departLane="0/3to1/3_0" departPos="5.10" departSpeed="0.00" departDelay="0.00" arrival="227.00" arrivalLane="3/3to4/3_0" arrivalPos="490.50" arrivalSpeed="12.79" duration="202.00" routeLength="1985.40" waitSteps="32" timeLoss="58.64" rerouteNo="0" devices="tripinfo_31" vType="DEFAULT_VEHTYPE" vaporized=""/>
    <tripinfo id="27" depart="21.00" departLane="4/1to3/1_0" departPos="5.10" departSpeed="0.00" departDelay="0.00" arrival="227.00" arrivalLane="1/1to0/1_0" arrivalPos="490.50" arrivalSpeed="13.47" duration="206.00" routeLength="1985.40" waitSteps="33" timeLoss="62.39" rerouteNo="0" devices="tripinfo_27" vType="DEFAULT_VEHTYPE" vaporized=""/>
    <tripinfo id="18" depart="14.00" departLane="4/3to3/3_0" departPos="5.10" departSpeed="0.00" departDelay="0.00" arrival="227.00" arrivalLane="1/3to0/3_0" arrivalPos="490.50" arrivalSpeed="12.97" duration="213.00" routeLength="1985.40" waitSteps="44" timeLoss="69.48" rerouteNo="0" devices="tripinfo_18" vType="DEFAULT_VEHTYPE" vaporized=""/>
    <tripinfo id="49" depart="41.00" departLane="0/1to1/1_0" departPos="5.10" departSpeed="0.00" departDelay="0.00" arrival="228.00" arrivalLane="3/1to4/1_0" arrivalPos="490.50" arrivalSpeed="13.82" duration="187.00" routeLength="1985.40" waitSteps="15" timeLoss="43.19" rerouteNo="0" devices="tripinfo_49" vType="DEFAULT_VEHTYPE" vaporized=""/>
    <tripinfo id="44" depart="37.00" departLane="0/3to1/3_0" departPos="5.10" departSpeed="0.00" departDelay="0.00" arrival="229.00" arrivalLane="3/3to4/3_0" arrivalPos="490.50" arrivalSpeed="13.81" duration="192.00" routeLength="1985.40" waitSteps="16" timeLoss="48.38" rerouteNo="0" devices="tripinfo_44" vType="DEFAULT_VEHTYPE" vaporized=""/>
    <tripinfo id="67" depart="58.00" departLane="0/1to1/1_0" departPos="5.10" departSpeed="0.00" departDelay="0.00" arrival="229.00" arrivalLane="3/1to4/1_0" arrivalPos="490.50" arrivalSpeed="13.06" duration="171.00" routeLength="1985.40" waitSteps="5" timeLoss="27.96" rerouteNo="0" devices="tripinfo_67" vType="DEFAULT_VEHTYPE" vaporized=""/>
    <tripinfo id="33" depart="27.00" departLane="4/1to3/1_0" departPos="5.10" departSpeed="0.00" departDelay="0.00" arrival="229.00" arrivalLane="1/1to0/1_0" arrivalPos="490.50" arrivalSpeed="13.20" duration="202.00" routeLength="1985.40" waitSteps="26" timeLoss="58.55" rerouteNo="0" devices="tripinfo_33" vType="DEFAULT_VEHTYPE" vaporized=""/>
    <tripinfo id="28" depart="21.00" departLane="4/3to3/3_0" departPos="5.10" departSpeed="0.00" departDelay="0.00" arrival="229.00" arrivalLane="1/3to0/3_0" arrivalPos="490.50" arrivalSpeed="13.55" duration="208.00" routeLength="1985.40" waitSteps="36" timeLoss="64.46" rerouteNo="0" devices="tripinfo_28" vType="DEFAULT_VEHTYPE" vaporized=""/>
    <tripinfo id="54" depart="49.00" departLane="0/3to1/3_0" departPos="5.10" departSpeed="0.00" departDelay="0.00" arrival="231.00" arrivalLane="3/3to4/3_0" arrivalPos="490.50" arrivalSpeed="13.41" duration="182.00" routeLength="1985.40" waitSteps="12" timeLoss="38.40" rerouteNo="0" devices="tripinfo_54" vType="DEFAULT_VEHTYPE" vaporized=""/>
    <tripinfo id="38" depart="33.00" departLane="4/1to3/1_0" departPos="5.10" departSpeed="0.00" departDelay="0.00" arrival="231.00" arrivalLane="1/1to0/1_0" arrivalPos="490.50" arrivalSpeed="13.31" duration="198.00" routeLength="1985.40" waitSteps="19" timeLoss="54.70" rerouteNo="0" devices="tripinfo_38" vType="DEFAULT_VEHTYPE" vaporized=""/>
    <tripinfo id="34" depart="28.00" departLane="4/3to3/3_0" departPos="5.10" departSpeed="0.00" departDelay="0.00" arrival="231.00" arrivalLane="1/3to0/3_0" arrivalPos="490.50" arrivalSpeed="12.84" duration="203.00" routeLength="1985.40" waitSteps="27" timeLoss="59.44" rerouteNo="0" devices="tripinfo_34" vType="DEFAULT_VEHTYPE" vaporized=""/>
    <tripinfo id="23" depart="18.00" departLane="4/2to3/2_0" departPos="5.10" departSpeed="0.00" departDelay="0.00" arrival="232.00" arrivalLane="1/2to0/2_0" arrivalPos="490.50" arrivalSpeed="13.68" duration="214.00" routeLength="1985.40" waitSteps="44" timeLoss="70.71" rerouteNo="0" devices="tripinfo_23" vType="DEFAULT_VEHTYPE" vaporized=""/>
    <tripinfo id="70" depart="61.00" departLane="0/3to1/3_0" departPos="5.10" departSpeed="0.00" departDelay="0.00" arrival="233.00" arrivalLane="3/3to4/3_0" arrivalPos="490.50" arrivalSpeed="12.86" duration="172.00" routeLength="1985.40" waitSteps="11" timeLoss="29.00" rerouteNo="0" devices="tripinfo_70" vType="DEFAULT_VEHTYPE" vaporized=""/>
    <tripinfo id="47" depart="39.00" departLane="4/1to3/1_0" departPos="5.10" departSpeed="0.00" departDelay="0.00" arrival="233.00" arrivalLane="1/1to0/1_0" arrivalPos="490.50" arrivalSpeed="12.62" duration="194.00" routeLength="1985.40" waitSteps="14" timeLoss="50.59" rerouteNo="0" devices="tripinfo_47" vType="DEFAULT_VEHTYPE" vaporized=""/>
    <tripinfo id="41" depart="35.00" departLane="4/3to3/3_0" departPos="5.10" departSpeed="0.00" departDelay="0.00" arrival="233.00" arrivalLane="1/3to0/3_0" arrivalPos="490.50" arrivalSpeed="12.97" duration="198.00" routeLength="1985.40" waitSteps="23" timeLoss="54.20" rerouteNo="0" devices="tripinfo_41" vType="DEFAULT_VEHTYPE" vaporized=""/>
    <tripinfo id="50" depart="42.00" departLane="4/3to3/3_0" departPos="5.10" departSpeed="0.00" departDelay="0.00" arrival="234.00" arrivalLane="1/3to0/3_0" arrivalPos="490.50" arrivalSpeed="13.23" duration="192.00" routeLength="1985.40" waitSteps="17" timeLoss="49.03" rerouteNo="0" devices="tripinfo_50" vType="DEFAULT_VEHTYPE" vaporized=""/>
    <tripinfo id="39" depart="34.00" departLane="4/2to3/2_0" departPos="5.10" departSpeed="0.00" departDelay="0.00" arrival="234.00" arrivalLane="1/2to0/2_0" arrivalPos="490.50" arrivalSpeed="13.48" duration="200.00" routeLength="1985.40" waitSteps="28" timeLoss="56.89" rerouteNo="0" devices="tripinfo_39" vType="DEFAULT_VEHTYPE" vaporized=""/>
    <tripinfo id="53" depart="45.00" departLane="4/1to3/1_0" departPos="5.10" departSpeed="0.00" departDelay="0.00" arrival="235.00" arrivalLane="1/1to0/1_0" arrivalPos="490.50" arrivalSpeed="12.67" duration="190.00" routeLength="1985.40" waitSteps="10" timeLoss="46.67" rerouteNo="0" devices="tripinfo_53" vType="DEFAULT_VEHTYPE" vaporized=""/>
    <tripinfo id="24" depart="20.00" departLane="0/2to1/2_0" departPos="5.10" departSpeed="0.00" departDelay="0.00" arrival="235.00" arrivalLane="3/2to4/2_0" arrivalPos="490.50" arrivalSpeed="12.74" duration="215.00" routeLength="1985.40" waitSteps="43" timeLoss="71.73" rerouteNo="0" devices="tripinfo_24" vType="DEFAULT_VEHTYPE" vaporized=""/>
    <tripinfo id="55" depart="49.00" departLane="4/3to3/3_0" departPos="5.10" departSpeed="0.00" departDelay="0.00" arrival="236.00" arrivalLane="1/3to0/3_0" arrivalPos="490.50" arrivalSpeed="13.05" duration="187.00" routeLength="1985.40" waitSteps="17" timeLoss="43.95" rerouteNo="0" devices="tripinfo_55" vType="DEFAULT_VEHTYPE" vaporized=""/>
    <tripinfo id="57" depart="50.00" departLane="4/2to3/2_0" departPos="5.10" departSpeed="0.00" departDelay="0.00" arrival="236.00" arrivalLane="1/2to0/2_0" arrivalPos="490.50" arrivalSpeed="13.12" duration="186.00" routeLength="1985.40" waitSteps="18" timeLoss="42.72" rerouteNo="0" devices="tripinfo_57" vType="DEFAULT_VEHTYPE" vaporized=""/>
    <tripinfo id="59" depart="51.00" departLane="4/1to3/1_0" departPos="5.10" departSpeed="0.00" departDelay="0.00" arrival="237.00" arrivalLane="1/1to0/1_0" arrivalPos="490.50" arrivalSpeed="13.83" duration="186.00" routeLength="1985.40" waitSteps="10" timeLoss="42.44" rerouteNo="0" devices="tripinfo_59" vType="DEFAULT_VEHTYPE" vaporized=""/>
    <tripinfo id="42" depart="36.00" departLane="0/2to1/2_0" departPos="5.10" departSpeed="0.00" departDelay="0.00" arrival="237.00" arrivalLane="3/2to4/2_0" arrivalPos="490.50" arrivalSpeed="12.68" duration="201.00" routeLength="1985.40" waitSteps="29" timeLoss="57.56" rerouteNo="0" devices="tripinfo_42" vType="DEFAULT_VEHTYPE" vaporized=""/>
    <tripinfo id="64" depart="56.00" departLane="4/3to3/3_0" departPos="5.10" departSpeed="0.00" departDelay="0.00" arrival="238.00" arrivalLane="1/3to0/3_0" arrivalPos="490.50" arrivalSpeed="13.61" duration="182.00" routeLength="1985.40" waitSteps="10" timeLoss="38.69" rerouteNo="0" devices="tripinfo_64" vType="DEFAULT_VEHTYPE" vaporized=""/>
    <tripinfo id="75" depart="66.00" departLane="4/2to3/2_0" departPos="5.10" departSpeed="0.00" departDelay="0.00" arrival="238.00" arrivalLane="1/2to0/2_0" arrivalPos="490.50" arrivalSpeed="13.49" duration="172.00" routeLength="1985.40" waitSteps="2" timeLoss="28.63" rerouteNo="0" devices="tripinfo_75" vType="DEFAULT_VEHTYPE" vaporized=""/>
    <tripinfo id="65" depart="57.00" departLane="4/1to3/1_0" departPos="5.10" departSpeed="0.00" departDelay="0.00" arrival="239.00" arrivalLane="1/1to0/1_0" arrivalPos="490.50" arrivalSpeed="13.29" duration="182.00" routeLength="1985.40" waitSteps="9" timeLoss="38.18" rerouteNo="0" devices="tripinfo_65" vType="DEFAULT_VEHTYPE" vaporized=""/>
    <tripinfo id="62" depart="52.00" departLane="0/2to1/2_0" departPos="5.10" departSpeed="0.00" departDelay="0.00" arrival="239.00" arrivalLane="3/2to4/2_0" arrivalPos="490.50" arrivalSpeed="13.37" duration="187.00" routeLength="1985.40" waitSteps="22" timeLoss="43.44" rerouteNo="0" devices="tripinfo_62" vType="DEFAULT_VEHTYPE" vaporized=""/>
    <tripinfo id="72" depart="63.00" departLane="4/1to3/1_0" departPos="5.10" departSpeed="0.00" departDelay="0.00" arrival="240.00" arrivalLane="1/1to0/1_0" arrivalPos="490.50" arrivalSpeed="13.44" duration="177.00" routeLength="1985.40" waitSteps="6" timeLoss="33.94" rerouteNo="0" devices="tripinfo_72" vType="DEFAULT_VEHTYPE" vaporized=""/>
    <tripinfo id="73" depart="63.00" departLane="4/3to3/3_0" departPos="5.10" departSpeed="0.00" departDelay="0.00" arrival="240.00" arrivalLane="1/3to0/3_0" arrivalPos="490.50" arrivalSpeed="13.15" duration="177.00" routeLength="1985.40" waitSteps="9" timeLoss="33.61" rerouteNo="0" devices="tripinfo_73" vType="DEFAULT_VEHTYPE" vaporized=""/>
    <tripinfo id="71" depart="62.00" departLane="1/0to1/1_0" departPos="5.10" departSpeed="0.00" departDelay="0.00" arrival="256.00" arrivalLane="1/3to1/4_0" arrivalPos="490.50" arrivalSpeed="13.67" duration="194.00" routeLength="1985.40" waitSteps="26" timeLoss="50.75" rerouteNo="0" devices="tripinfo_71" vType="DEFAULT_VEHTYPE" vaporized=""/>
    <tripinfo id="51" depart="44.00" departLane="3/4to3/3_0" departPos="5.10" departSpeed="0.00" departDelay="0.00" arrival="256.00" arrivalLane="3/1to3/0_0" arrivalPos="490.50" arrivalSpeed="13.10" duration="212.00" routeLength="1985.40" waitSteps="42" timeLoss="68.19" rerouteNo="0" devices="tripinfo_51" vType="DEFAULT_VEHTYPE" vaporized=""/>
    <tripinfo id="61" depart="52.00" departLane="2/4to2/3_0" departPos="5.10" departSpeed="0.00" departDelay="0.00" arrival="256.00" arrivalLane="2/1to2/0_0" arrivalPos="490.50" arrivalSpeed="13.30" duration="204.00" routeLength="1985.40" waitSteps="34" timeLoss="60.86" rerouteNo="0" devices="tripinfo_61" vType="DEFAULT_VEHTYPE" vaporized=""/>
    <tripinfo id="60" depart="52.00" departLane="2/0to2/1_0" departPos="5.10" departSpeed="0.00" departDelay="0.00" arrival="256.00" arrivalLane="2/3to2/4_0" arrivalPos="490.50" arrivalSpeed="13.80" duration="204.00" routeLength="1985.40" waitSteps="35" timeLoss="60.51" rerouteNo="0" devices="tripinfo_60" vType="DEFAULT_VEHTYPE" vaporized=""/>
    <tripinfo id="63" depart="53.00" departLane="1/4to1/3_0" departPos="5.10" departSpeed="0.00" departDelay="0.00" arrival="256.00" arrivalLane="1/1to1/0_0" arrivalPos="490.50" arrivalSpeed="13.43" duration="203.00" routeLength="1985.40" waitSteps="33" timeLoss="59.41" rerouteNo="0" devices="tripinfo_63" vType="DEFAULT_VEHTYPE" vaporized=""/>
    <tripinfo id="48" depart="41.00" departLane="3/0to3/1_0" departPos="5.10" departSpeed="0.00" departDelay="0.00" arrival="256.00" arrivalLane="3/3to3/4_0" arrivalPos="490.50" arrivalSpeed="12.82" duration="215.00" routeLength="1985.40" waitSteps="44" timeLoss="71.27" rerouteNo="0" devices="tripinfo_48" vType="DEFAULT_VEHTYPE" vaporized=""/>
    <tripinfo id="85" depart="74.00" departLane="1/0to1/1_0" departPos="5.10" departSpeed="0.00" departDelay="0.00" arrival="258.00" arrivalLane="1/3to1/4_0" arrivalPos="490.50" arrivalSpeed="12.83" duration="184.00" routeLength="1985.40" waitSteps="19" timeLoss="40.61" rerouteNo="0" devices="tripinfo_85" vType="DEFAULT_VEHTYPE" vaporized=""/>
    <tripinfo id="66" depart="58.00" departLane="3/4to3/3_0" departPos="5.10" departSpeed="0.00" departDelay="0.00" arrival="258.00" arrivalLane="3/1to3/0_0" arrivalPos="490.50" arrivalSpeed="13.59" duration="200.00" routeLength="1985.40" waitSteps="27" timeLoss="56.32" rerouteNo="0" devices="tripinfo_66" vType="DEFAULT_VEHTYPE" vaporized=""/>
    <tripinfo id="78" depart="69.00" departLane="2/4to2/3_0" departPos="5.10" departSpeed="0.00" departDelay="0.00" arrival="258.00" arrivalLane="2/1to2/0_0" arrivalPos="490.50" arrivalSpeed="13.27" duration="189.00" routeLength="1985.40" waitSteps="18" timeLoss="45.69" rerouteNo="0" devices="tripinfo_78" vType="DEFAULT_VEHTYPE" vaporized=""/>
    <tripinfo id="68" depart="59.00" departLane="2/0to2/1_0" departPos="5.10" departSpeed="0.00" departDelay="0.00" arrival="258.00" arrivalLane="2/3to2/4_0" arrivalPos="490.50" arrivalSpeed="13.75" duration="199.00" routeLength="1985.40" waitSteps="27" timeLoss="55.49" rerouteNo="0" devices="tripinfo_68" vType="DEFAULT_VEHTYPE" vaporized=""/>
    <tripinfo id="77" depart="69.00" departLane="1/4to1/3_0" departPos="5.10" departSpeed="0.00" departDelay="0.00" arrival="258.00" arrivalLane="1/1to1/0_0" arrivalPos="490.50" arrivalSpeed="13.40" duration="189.00" routeLength="1985.40" waitSteps="19" timeLoss="45.58" rerouteNo="0" devices="tripinfo_77" vType="DEFAULT_VEHTYPE" vaporized=""/>
    <tripinfo id="58" depart="51.00" departLane="3/0to3/1_0" departPos="5.10" departSpeed="0.00" departDelay="0.00" arrival="258.00" arrivalLane="3/3to3/4_0" arrivalPos="490.50" arrivalSpeed="12.70" duration="207.00" routeLength="1985.40" waitSteps="35" timeLoss="63.96" rerouteNo="0" devices="tripinfo_58" vType="DEFAULT_VEHTYPE" vaporized=""/>
    <tripinfo id="97" depart="86.00" departLane="1/0to1/1_0" departPos="5.10" departSpeed="0.00" departDelay="0.00" arrival="260.00" arrivalLane="1/3to1/4_0" arrivalPos="490.50" arrivalSpeed="13.35" duration="174.00" routeLength="1985.40" waitSteps="9" timeLoss="30.39" rerouteNo="0" devices="tripinfo_97" vType="DEFAULT_VEHTYPE" vaporized=""/>
    <tripinfo id="82" depart="72.00" departLane="3/4to3/3_0" departPos="5.10" departSpeed="0.00" departDelay="0.00" arrival="260.00" arrivalLane="3/1to3/0_0" arrivalPos="490.50" arrivalSpeed="12.92" duration="188.00" routeLength="1985.40" waitSteps="17" timeLoss="44.47" rerouteNo="0" devices="tripinfo_82" vType="DEFAULT_VEHTYPE" vaporized=""/>
    <tripinfo id="98" depart="86.00" departLane="2/4to2/3_0" departPos="5.10" departSpeed="0.00" departDelay="0.00" arrival="260.00" arrivalLane="2/1to2/0_0" arrivalPos="490.50" arrivalSpeed="13.21" duration="174.00" routeLength="1985.40" waitSteps="9" timeLoss="30.56" rerouteNo="0" devices="tripinfo_98" vType="DEFAULT_VEHTYPE" vaporized=""/>
    <tripinfo id="74" depart="66.00" departLane="2/0to2/1_0" departPos="5.10" departSpeed="0.00" departDelay="0.00" arrival="260.00" arrivalLane="2/3to2/4_0" arrivalPos="490.50" arrivalSpeed="13.16" duration="194.00" routeLength="1985.40" waitSteps="19" timeLoss="50.45" rerouteNo="0" devices="tripinfo_74" vType="DEFAULT_VEHTYPE" vaporized=""/>
    <tripinfo id="95" depart="85.00" departLane="1/4to1/3_0" departPos="5.10" departSpeed="0.00" departDelay="0.00" arrival="260.00" arrivalLane="1/1to1/0_0" arrivalPos="490.50" arrivalSpeed="12.97" duration="175.00" routeLength="1985.40" waitSteps="9" timeLoss="31.85" rerouteNo="0" devices="tripinfo_95" vType="DEFAULT_VEHTYPE" vaporized=""/>
    <tripinfo id="69" depart="61.00" departLane="3/0to3/1_0" departPos="5.10" departSpeed="0.00" departDelay="0.00" arrival="260.00" arrivalLane="3/3to3/4_0" arrivalPos="490.50" arrivalSpeed="13.76" duration="199.00" routeLength="1985.40" waitSteps="25" timeLoss="55.67" rerouteNo="0" devices="tripinfo_69" vType="DEFAULT_VEHTYPE" vaporized=""/>
    <tripinfo id="99" depart="86.00" departLane="3/4to3/3_0" departPos="5.10" departSpeed="0.00" departDelay="0.00" arrival="262.00" arrivalLane="3/1to3/0_0" arrivalPos="490.50" arrivalSpeed="13.53" duration="176.00" routeLength="1985.40" waitSteps="6" timeLoss="32.56" rerouteNo="0" devices="tripinfo_99" vType="DEFAULT_VEHTYPE" vaporized=""/>