<?xml version="1.0" encoding="UTF-8"?>

<!-- generated on Sat 24 Dec 2016 09:28:18 PM +03 by SUMO gui Version 0.25.0
<?xml version="1.0" encoding="UTF-8"?>

<configuration xmlns:xsi="http://www.w3.org/2001/XMLSchema-instance" xsi:noNamespaceSchemaLocation="http://sumo.dlr.de/xsd/sumo-gui.exeConfiguration.xsd">

    <input>
        <net-file value="data/cross.net.xml"/>
        <route-files value="data/cross.rou.xml"/>
        <additional-files value="data/cross.det.xml"/>
    </input>

    <output>
        <tripinfo-output value="tripinfo.xml"/>
        <save-state.prefix value="data/state"/>
    </output>

    <time>
        <begin value="0"/>
    </time>

    <report>
        <verbose value="true"/>
        <no-step-log value="true"/>
    </report>

    <emissions>
        <phemlight-path value="data/./PHEMlight/"/>
    </emissions>

    <traci_server>
        <remote-port value="8873"/>
    </traci_server>

</configuration>
-->

<detector xmlns:xsi="http://www.w3.org/2001/XMLSchema-instance" xsi:noNamespaceSchemaLocation="http://sumo.dlr.de/xsd/det_e1_file.xsd">
   <interval begin="0.00" end="30.00" id="0" nVehContrib="0" flow="0.00" occupancy="0.00" speed="-1.00" length="-1.00" nVehEntered="0"/>
   <interval begin="30.00" end="60.00" id="0" nVehContrib="0" flow="0.00" occupancy="0.00" speed="-1.00" length="-1.00" nVehEntered="0"/>
   <interval begin="60.00" end="90.00" id="0" nVehContrib="0" flow="0.00" occupancy="0.00" speed="-1.00" length="-1.00" nVehEntered="0"/>
   <interval begin="90.00" end="120.00" id="0" nVehContrib="0" flow="0.00" occupancy="0.00" speed="-1.00" length="-1.00" nVehEntered="0"/>
   <interval begin="120.00" end="150.00" id="0" nVehContrib="2" flow="240.00" occupancy="2.75" speed="17.01" length="7.00" nVehEntered="2"/>
   <interval begin="150.00" end="180.00" id="0" nVehContrib="1" flow="120.00" occupancy="1.21" speed="19.23" length="7.00" nVehEntered="1"/>
   <interval begin="180.00" end="210.00" id="0" nVehContrib="0" flow="0.00" occupancy="0.00" speed="-1.00" length="-1.00" nVehEntered="0"/>
   <interval begin="210.00" end="240.00" id="0" nVehContrib="1" flow="120.00" occupancy="1.31" speed="17.81" length="7.00" nVehEntered="1"/>
   <interval begin="240.00" end="270.00" id="0" nVehContrib="0" flow="0.00" occupancy="0.00" speed="-1.00" length="-1.00" nVehEntered="0"/>
   <interval begin="270.00" end="300.00" id="0" nVehContrib="0" flow="0.00" occupancy="0.00" speed="-1.00" length="-1.00" nVehEntered="0"/>
   <interval begin="300.00" end="330.00" id="0" nVehContrib="0" flow="0.00" occupancy="0.00" speed="-1.00" length="-1.00" nVehEntered="0"/>
   <interval begin="330.00" end="360.00" id="0" nVehContrib="1" flow="120.00" occupancy="1.23" speed="18.98" length="7.00" nVehEntered="1"/>
   <interval begin="360.00" end="390.00" id="0" nVehContrib="3" flow="360.00" occupancy="3.68" speed="19.01" length="7.00" nVehEntered="3"/>
   <interval begin="390.00" end="420.00" id="0" nVehContrib="1" flow="120.00" occupancy="1.29" speed="18.09" length="7.00" nVehEntered="1"/>
   <interval begin="420.00" end="450.00" id="0" nVehContrib="2" flow="240.00" occupancy="2.70" speed="17.45" length="7.00" nVehEntered="2"/>
   <interval begin="450.00" end="480.00" id="0" nVehContrib="0" flow="0.00" occupancy="0.00" speed="-1.00" length="-1.00" nVehEntered="0"/>
   <interval begin="480.00" end="510.00" id="0" nVehContrib="3" flow="360.00" occupancy="4.56" speed="15.62" length="7.00" nVehEntered="3"/>
   <interval begin="510.00" end="540.00" id="0" nVehContrib="0" flow="0.00" occupancy="0.00" speed="-1.00" length="-1.00" nVehEntered="0"/>
   <interval begin="540.00" end="570.00" id="0" nVehContrib="1" flow="120.00" occupancy="1.25" speed="18.61" length="7.00" nVehEntered="1"/>
   <interval begin="570.00" end="600.00" id="0" nVehContrib="0" flow="0.00" occupancy="0.00" speed="-1.00" length="-1.00" nVehEntered="0"/>
   <interval begin="600.00" end="630.00" id="0" nVehContrib="1" flow="120.00" occupancy="1.21" speed="19.26" length="7.00" nVehEntered="1"/>
   <interval begin="630.00" end="660.00" id="0" nVehContrib="0" flow="0.00" occupancy="0.00" speed="-1.00" length="-1.00" nVehEntered="0"/>
   <interval begin="660.00" end="690.00" id="0" nVehContrib="1" flow="120.00" occupancy="1.32" speed="17.74" length="7.00" nVehEntered="1"/>
   <interval begin="690.00" end="720.00" id="0" nVehContrib="1" flow="120.00" occupancy="1.21" speed="19.25" length="7.00" nVehEntered="1"/>
   <interval begin="720.00" end="750.00" id="0" nVehContrib="1" flow="120.00" occupancy="1.21" speed="19.33" length="7.00" nVehEntered="1"/>
   <interval begin="750.00" end="780.00" id="0" nVehContrib="3" flow="360.00" occupancy="4.34" speed="16.34" length="7.00" nVehEntered="3"/>
   <interval begin="780.00" end="810.00" id="0" nVehContrib="0" flow="0.00" occupancy="0.00" speed="-1.00" length="-1.00" nVehEntered="0"/>
   <interval begin="810.00" end="840.00" id="0" nVehContrib="3" flow="360.00" occupancy="4.20" speed="16.75" length="7.00" nVehEntered="3"/>
   <interval begin="840.00" end="870.00" id="0" nVehContrib="1" flow="120.00" occupancy="1.20" speed="19.38" length="7.00" nVehEntered="1"/>
   <interval begin="870.00" end="900.00" id="0" nVehContrib="2" flow="240.00" occupancy="2.57" speed="18.19" length="7.00" nVehEntered="2"/>
   <interval begin="900.00" end="930.00" id="0" nVehContrib="0" flow="0.00" occupancy="0.00" speed="-1.00" length="-1.00" nVehEntered="0"/>
   <interval begin="930.00" end="960.00" id="0" nVehContrib="2" flow="240.00" occupancy="2.53" speed="18.45" length="7.00" nVehEntered="2"/>
   <interval begin="960.00" end="990.00" id="0" nVehContrib="1" flow="120.00" occupancy="1.32" speed="17.72" length="7.00" nVehEntered="1"/>
   <interval begin="990.00" end="1020.00" id="0" nVehContrib="2" flow="240.00" occupancy="2.43" speed="19.19" length="7.00" nVehEntered="2"/>
   <interval begin="1020.00" end="1050.00" id="0" nVehContrib="1" flow="120.00" occupancy="1.22" speed="19.09" length="7.00" nVehEntered="1"/>
   <interval begin="1050.00" end="1080.00" id="0" nVehContrib="0" flow="0.00" occupancy="0.00" speed="-1.00" length="-1.00" nVehEntered="0"/>
   <interval begin="1080.00" end="1110.00" id="0" nVehContrib="1" flow="120.00" occupancy="1.27" speed="18.32" length="7.00" nVehEntered="1"/>
   <interval begin="1110.00" end="1140.00" id="0" nVehContrib="0" flow="0.00" occupancy="0.00" speed="-1.00" length="-1.00" nVehEntered="0"/>
   <interval begin="1140.00" end="1170.00" id="0" nVehContrib="1" flow="120.00" occupancy="1.33" speed="17.60" length="7.00" nVehEntered="1"/>
   <interval begin="1170.00" end="1200.00" id="0" nVehContrib="1" flow="120.00" occupancy="1.22" speed="19.16" length="7.00" nVehEntered="1"/>
   <interval begin="1200.00" end="1230.00" id="0" nVehContrib="0" flow="0.00" occupancy="0.00" speed="-1.00" length="-1.00" nVehEntered="0"/>
   <interval begin="1230.00" end="1260.00" id="0" nVehContrib="0" flow="0.00" occupancy="0.00" speed="-1.00" length="-1.00" nVehEntered="0"/>
   <interval begin="1260.00" end="1290.00" id="0" nVehContrib="0" flow="0.00" occupancy="0.00" speed="-1.00" length="-1.00" nVehEntered="0"/>
   <interval begin="1290.00" end="1320.00" id="0" nVehContrib="0" flow="0.00" occupancy="0.00" speed="-1.00" length="-1.00" nVehEntered="0"/>
   <interval begin="1320.00" end="1350.00" id="0" nVehContrib="1" flow="120.00" occupancy="1.23" speed="19.05" length="7.00" nVehEntered="1"/>
   <interval begin="1350.00" end="1380.00" id="0" nVehContrib="1" flow="120.00" occupancy="1.21" speed="19.29" length="7.00" nVehEntered="1"/>
   <interval begin="1380.00" end="1410.00" id="0" nVehContrib="0" flow="0.00" occupancy="0.00" speed="-1.00" length="-1.00" nVehEntered="0"/>
   <interval begin="1410.00" end="1440.00" id="0" nVehContrib="1" flow="120.00" occupancy="1.32" speed="17.70" length="7.00" nVehEntered="1"/>
   <interval begin="1440.00" end="1470.00" id="0" nVehContrib="1" flow="120.00" occupancy="1.20" speed="19.40" length="7.00" nVehEntered="1"/>
   <interval begin="1470.00" end="1500.00" id="0" nVehContrib="2" flow="240.00" occupancy="2.44" speed="19.14" length="7.00" nVehEntered="2"/>
   <interval begin="1500.00" end="1530.00" id="0" nVehContrib="2" flow="240.00" occupancy="2.53" speed="18.47" length="7.00" nVehEntered="2"/>
   <interval begin="1530.00" end="1560.00" id="0" nVehContrib="0" flow="0.00" occupancy="0.00" speed="-1.00" length="-1.00" nVehEntered="0"/>
   <interval begin="1560.00" end="1590.00" id="0" nVehContrib="1" flow="120.00" occupancy="1.29" speed="18.14" length="7.00" nVehEntered="1"/>
   <interval begin="1590.00" end="1620.00" id="0" nVehContrib="2" flow="240.00" occupancy="2.41" speed="19.37" length="7.00" nVehEntered="2"/>
   <interval begin="1620.00" end="1650.00" id="0" nVehContrib="1" flow="120.00" occupancy="1.37" speed="16.97" length="7.00" nVehEntered="1"/>
   <interval begin="1650.00" end="1680.00" id="0" nVehContrib="1" flow="120.00" occupancy="1.22" speed="19.12" length="7.00" nVehEntered="1"/>
   <interval begin="1680.00" end="1710.00" id="0" nVehContrib="2" flow="240.00" occupancy="2.42" speed="19.31" length="7.00" nVehEntered="2"/>
   <interval begin="1710.00" end="1740.00" id="0" nVehContrib="3" flow="360.00" occupancy="4.34" speed="17.78" length="7.00" nVehEntered="3"/>
   <interval begin="1740.00" end="1770.00" id="0" nVehContrib="2" flow="240.00" occupancy="3.21" speed="13.07" length="7.00" nVehEntered="2"/>
   <interval begin="1770.00" end="1800.00" id="0" nVehContrib="2" flow="240.00" occupancy="2.55" speed="18.32" length="7.00" nVehEntered="2"/>
   <interval begin="1800.00" end="1830.00" id="0" nVehContrib="0" flow="0.00" occupancy="0.00" speed="-1.00" length="-1.00" nVehEntered="0"/>
   <interval begin="1830.00" end="1860.00" id="0" nVehContrib="0" flow="0.00" occupancy="0.00" speed="-1.00" length="-1.00" nVehEntered="0"/>
   <interval begin="1860.00" end="1890.00" id="0" nVehContrib="0" flow="0.00" occupancy="0.00" speed="-1.00" length="-1.00" nVehEntered="0"/>
   <interval begin="1890.00" end="1920.00" id="0" nVehContrib="2" flow="240.00" occupancy="2.61" speed="17.95" length="7.00" nVehEntered="2"/>
   <interval begin="1920.00" end="1950.00" id="0" nVehContrib="0" flow="0.00" occupancy="0.00" speed="-1.00" length="-1.00" nVehEntered="0"/>
   <interval begin="1950.00" end="1980.00" id="0" nVehContrib="1" flow="120.00" occupancy="1.31" speed="17.82" length="7.00" nVehEntered="1"/>
   <interval begin="1980.00" end="2010.00" id="0" nVehContrib="2" flow="240.00" occupancy="2.71" speed="17.26" length="7.00" nVehEntered="2"/>
   <interval begin="2010.00" end="2040.00" id="0" nVehContrib="1" flow="120.00" occupancy="1.21" speed="19.30" length="7.00" nVehEntered="1"/>
   <interval begin="2040.00" end="2070.00" id="0" nVehContrib="0" flow="0.00" occupancy="0.00" speed="-1.00" length="-1.00" nVehEntered="0"/>
   <interval begin="2070.00" end="2100.00" id="0" nVehContrib="0" flow="0.00" occupancy="0.00" speed="-1.00" length="-1.00" nVehEntered="0"/>
   <interval begin="2100.00" end="2130.00" id="0" nVehContrib="2" flow="240.00" occupancy="2.69" speed="17.43" length="7.00" nVehEntered="2"/>
   <interval begin="2130.00" end="2160.00" id="0" nVehContrib="0" flow="0.00" occupancy="0.00" speed="-1.00" length="-1.00" nVehEntered="0"/>
   <interval begin="2160.00" end="2190.00" id="0" nVehContrib="0" flow="0.00" occupancy="0.00" speed="-1.00" length="-1.00" nVehEntered="0"/>
   <interval begin="2190.00" end="2220.00" id="0" nVehContrib="0" flow="0.00" occupancy="0.00" speed="-1.00" length="-1.00" nVehEntered="0"/>
   <interval begin="2220.00" end="2250.00" id="0" nVehContrib="1" flow="120.00" occupancy="1.30" speed="17.98" length="7.00" nVehEntered="1"/>
   <interval begin="2250.00" end="2280.00" id="0" nVehContrib="0" flow="0.00" occupancy="0.00" speed="-1.00" length="-1.00" nVehEntered="0"/>
   <interval begin="2280.00" end="2310.00" id="0" nVehContrib="3" flow="360.00" occupancy="4.20" speed="16.70" length="7.00" nVehEntered="3"/>
   <interval begin="2310.00" end="2340.00" id="0" nVehContrib="0" flow="0.00" occupancy="0.00" speed="-1.00" length="-1.00" nVehEntered="0"/>
   <interval begin="2340.00" end="2370.00" id="0" nVehContrib="2" flow="240.00" occupancy="2.76" speed="16.95" length="7.00" nVehEntered="2"/>
   <interval begin="2370.00" end="2400.00" id="0" nVehContrib="0" flow="0.00" occupancy="0.00" speed="-1.00" length="-1.00" nVehEntered="0"/>
   <interval begin="2400.00" end="2430.00" id="0" nVehContrib="1" flow="120.00" occupancy="1.21" speed="19.33" length="7.00" nVehEntered="1"/>
   <interval begin="2430.00" end="2460.00" id="0" nVehContrib="1" flow="120.00" occupancy="1.25" speed="18.71" length="7.00" nVehEntered="1"/>
   <interval begin="2460.00" end="2490.00" id="0" nVehContrib="0" flow="0.00" occupancy="0.00" speed="-1.00" length="-1.00" nVehEntered="0"/>
   <interval begin="2490.00" end="2520.00" id="0" nVehContrib="4" flow="480.00" occupancy="5.44" speed="17.37" length="7.00" nVehEntered="4"/>
   <interval begin="2520.00" end="2550.00" id="0" nVehContrib="0" flow="0.00" occupancy="0.00" speed="-1.00" length="-1.00" nVehEntered="0"/>
   <interval begin="2550.00" end="2580.00" id="0" nVehContrib="1" flow="120.00" occupancy="1.20" speed="19.38" length="7.00" nVehEntered="1"/>
   <interval begin="2580.00" end="2610.00" id="0" nVehContrib="2" flow="240.00" occupancy="2.56" speed="18.24" length="7.00" nVehEntered="2"/>
   <interval begin="2610.00" end="2640.00" id="0" nVehContrib="0" flow="0.00" occupancy="0.00" speed="-1.00" length="-1.00" nVehEntered="0"/>
   <interval begin="2640.00" end="2670.00" id="0" nVehContrib="0" flow="0.00" occupancy="0.00" speed="-1.00" length="-1.00" nVehEntered="0"/>
   <interval begin="2670.00" end="2700.00" id="0" nVehContrib="0" flow="0.00" occupancy="0.00" speed="-1.00" length="-1.00" nVehEntered="0"/>
   <interval begin="2700.00" end="2730.00" id="0" nVehContrib="2" flow="240.00" occupancy="2.46" speed="19.00" length="7.00" nVehEntered="2"/>
   <interval begin="2730.00" end="2760.00" id="0" nVehContrib="0" flow="0.00" occupancy="0.00" speed="-1.00" length="-1.00" nVehEntered="0"/>
   <interval begin="2760.00" end="2790.00" id="0" nVehContrib="1" flow="120.00" occupancy="1.28" speed="18.23" length="7.00" nVehEntered="1"/>
   <interval begin="2790.00" end="2820.00" id="0" nVehContrib="0" flow="0.00" occupancy="0.00" speed="-1.00" length="-1.00" nVehEntered="0"/>
   <interval begin="2820.00" end="2850.00" id="0" nVehContrib="1" flow="120.00" occupancy="1.31" speed="17.84" length="7.00" nVehEntered="1"/>
   <interval begin="2850.00" end="2880.00" id="0" nVehContrib="1" flow="120.00" occupancy="1.23" speed="19.02" length="7.00" nVehEntered="1"/>
   <interval begin="2880.00" end="2910.00" id="0" nVehContrib="1" flow="120.00" occupancy="1.22" speed="19.06" length="7.00" nVehEntered="1"/>
   <interval begin="2910.00" end="2940.00" id="0" nVehContrib="0" flow="0.00" occupancy="0.00" speed="-1.00" length="-1.00" nVehEntered="0"/>
   <interval begin="2940.00" end="2970.00" id="0" nVehContrib="0" flow="0.00" occupancy="0.00" speed="-1.00" length="-1.00" nVehEntered="0"/>
   <interval begin="2970.00" end="3000.00" id="0" nVehContrib="2" flow="240.00" occupancy="2.43" speed="19.19" length="7.00" nVehEntered="2"/>
   <interval begin="3000.00" end="3030.00" id="0" nVehContrib="3" flow="360.00" occupancy="3.87" speed="18.09" length="7.00" nVehEntered="3"/>
   <interval begin="3030.00" end="3060.00" id="0" nVehContrib="0" flow="0.00" occupancy="0.00" speed="-1.00" length="-1.00" nVehEntered="0"/>
   <interval begin="3060.00" end="3090.00" id="0" nVehContrib="1" flow="120.00" occupancy="1.29" speed="18.10" length="7.00" nVehEntered="1"/>
   <interval begin="3090.00" end="3120.00" id="0" nVehContrib="1" flow="120.00" occupancy="1.21" speed="19.27" length="7.00" nVehEntered="1"/>
   <interval begin="3120.00" end="3150.00" id="0" nVehContrib="2" flow="240.00" occupancy="2.52" speed="18.52" length="7.00" nVehEntered="2"/>
   <interval begin="3150.00" end="3180.00" id="0" nVehContrib="1" flow="120.00" occupancy="1.22" speed="19.10" length="7.00" nVehEntered="1"/>
   <interval begin="3180.00" end="3210.00" id="0" nVehContrib="1" flow="120.00" occupancy="1.32" speed="17.69" length="7.00" nVehEntered="1"/>
   <interval begin="3210.00" end="3240.00" id="0" nVehContrib="2" flow="240.00" occupancy="2.44" speed="19.12" length="7.00" nVehEntered="2"/>
   <interval begin="3240.00" end="3270.00" id="0" nVehContrib="2" flow="240.00" occupancy="2.73" speed="17.12" length="7.00" nVehEntered="2"/>
   <interval begin="3270.00" end="3300.00" id="0" nVehContrib="1" flow="120.00" occupancy="1.26" speed="18.48" length="7.00" nVehEntered="1"/>
   <interval begin="3300.00" end="3330.00" id="0" nVehContrib="1" flow="120.00" occupancy="1.22" speed="19.16" length="7.00" nVehEntered="1"/>
   <interval begin="3330.00" end="3360.00" id="0" nVehContrib="0" flow="0.00" occupancy="0.00" speed="-1.00" length="-1.00" nVehEntered="0"/>
   <interval begin="3360.00" end="3390.00" id="0" nVehContrib="0" flow="0.00" occupancy="0.00" speed="-1.00" length="-1.00" nVehEntered="0"/>
   <interval begin="3390.00" end="3420.00" id="0" nVehContrib="0" flow="0.00" occupancy="0.00" speed="-1.00" length="-1.00" nVehEntered="0"/>
   <interval begin="3420.00" end="3450.00" id="0" nVehContrib="0" flow="0.00" occupancy="0.00" speed="-1.00" length="-1.00" nVehEntered="0"/>
   <interval begin="3450.00" end="3480.00" id="0" nVehContrib="1" flow="120.00" occupancy="1.32" speed="17.69" length="7.00" nVehEntered="1"/>
   <interval begin="3480.00" end="3510.00" id="0" nVehContrib="1" flow="120.00" occupancy="1.31" speed="17.75" length="7.00" nVehEntered="1"/>
   <interval begin="3510.00" end="3540.00" id="0" nVehContrib="0" flow="0.00" occupancy="0.00" speed="-1.00" length="-1.00" nVehEntered="0"/>
   <interval begin="3540.00" end="3570.00" id="0" nVehContrib="1" flow="120.00" occupancy="1.29" speed="18.04" length="7.00" nVehEntered="1"/>
   <interval begin="3570.00" end="3600.00" id="0" nVehContrib="0" flow="0.00" occupancy="0.00" speed="-1.00" length="-1.00" nVehEntered="0"/>
   <interval begin="3600.00" end="3630.00" id="0" nVehContrib="0" flow="0.00" occupancy="0.00" speed="-1.00" length="-1.00" nVehEntered="0"/>
   <interval begin="3630.00" end="3660.00" id="0" nVehContrib="1" flow="120.00" occupancy="1.22" speed="19.09" length="7.00" nVehEntered="1"/>
   <interval begin="3660.00" end="3690.00" id="0" nVehContrib="0" flow="0.00" occupancy="0.00" speed="-1.00" length="-1.00" nVehEntered="0"/>
   <interval begin="3690.00" end="3720.00" id="0" nVehContrib="0" flow="0.00" occupancy="0.00" speed="-1.00" length="-1.00" nVehEntered="0"/>
   <interval begin="3720.00" end="3741.00" id="0" nVehContrib="0" flow="0.00" occupancy="0.00" speed="-1.00" length="-1.00" nVehEntered="0"/>
</detector>
